#------------------------------------------------------------------------------
#$Date: 2018-09-27 06:13:35 +0200 (Thu 27 de Sep de 2018) $
#$Revision: 211196 $
#$URL: svn://www.crystallography.net/cod/cif/1/53/76/1537667.cif $
#------------------------------------------------------------------------------
#
# This file is available in the Crystallography Open Database (COD),
# http://www.crystallography.net/
#
# All data on this site have been placed in the public domain by the
# contributors.
#
data_1537667
loop_
_publ_author_name
'Charlton, J.S.'
'Cordey-Hayes, M.'
'Harris, I.R.'
_publ_section_title
;
 A study of the 119Sn Moessbauer isomer shifts in some platinum-tin and
 gold-tin alloys
;
_journal_name_full               'Journal of the Less-Common Metals'
_journal_page_first              105
_journal_page_last               112
_journal_volume                  20
_journal_year                    1970
_chemical_formula_sum            'Pt Sn'
_space_group_IT_number           194
_symmetry_space_group_name_Hall  '-P 6c 2c'
_symmetry_space_group_name_H-M   'P 63/m m c'
_cell_angle_alpha                90
_cell_angle_beta                 90
_cell_angle_gamma                120
_cell_formula_units_Z            2
_cell_length_a                   4.1014
_cell_length_b                   4.1014
_cell_length_c                   5.4405
_cell_volume                     79.256
_citation_journal_id_ASTM        JCOMAH
_cod_data_source_file            Charlton_JCOMAH_1970_1537.cif
_cod_data_source_block           Pt1Sn1
_cod_original_cell_volume        79.25628
_cod_original_formula_sum        'Pt1 Sn1'
_cod_database_code               1537667
loop_
_symmetry_equiv_pos_as_xyz
x,y,z
x-y,x,z+1/2
-y,x-y,z
-x,-y,z+1/2
-x+y,-x,z
y,-x+y,z+1/2
-y,-x,-z+1/2
x-y,-y,-z
x,x-y,-z+1/2
y,x,-z
-x+y,y,-z+1/2
-x,-x+y,-z
-x,-y,-z
-x+y,-x,-z-1/2
y,-x+y,-z
x,y,-z-1/2
x-y,x,-z
-y,x-y,-z-1/2
y,x,z-1/2
-x+y,y,z
-x,-x+y,z-1/2
-y,-x,z
x-y,-y,z-1/2
x,x-y,z
loop_
_atom_site_label
_atom_site_type_symbol
_atom_site_fract_x
_atom_site_fract_y
_atom_site_fract_z
_atom_site_occupancy
_atom_site_U_iso_or_equiv
Pt1 Pt 0 0 0 1 0.0
Sn1 Sn 0.3333 0.6667 0.25 1 0.0
